MODEL 1
REMARK VINA RESULT:    -5.371      0.000      0.000
REMARK INTER + INTRA:          -6.879
REMARK INTER:                  -6.470
REMARK INTRA:                  -0.408
REMARK UNBOUND:                -0.408
REMARK SMILES CC(=O)Oc1ccccc1C(=O)S
REMARK SMILES IDX 5 1 6 2 7 3 8 4 9 5 10 6 4 7 2 8 1 9 3 10 11 11 12 12 13 13
REMARK H PARENT 13 14
ROOT
ATOM      1  C   UNL     1     102.857 114.109 108.465  1.00  0.00     0.142 A 
ATOM      2  C   UNL     1     101.962 113.073 108.747  1.00  0.00     0.048 A 
ATOM      3  C   UNL     1     101.611 112.807 110.069  1.00  0.00     0.004 A 
ATOM      4  C   UNL     1     102.136 113.583 111.103  1.00  0.00     0.001 A 
ATOM      5  C   UNL     1     103.016 114.631 110.819  1.00  0.00     0.016 A 
ATOM      6  C   UNL     1     103.386 114.901 109.493  1.00  0.00     0.071 A 
ENDROOT
BRANCH   1   7
ATOM      7  O   UNL     1     103.150 114.328 107.114  1.00  0.00    -0.426 OA
BRANCH   7   8
ATOM      8  C   UNL     1     104.006 113.378 106.567  1.00  0.00     0.308 C 
ATOM      9  C   UNL     1     103.301 112.667 105.452  1.00  0.00     0.139 C 
ATOM     10  O   UNL     1     105.153 113.144 106.929  1.00  0.00    -0.252 OA
ENDBRANCH   7   8
ENDBRANCH   1   7
BRANCH   6  11
ATOM     11  C   UNL     1     104.284 116.036 109.173  1.00  0.00     0.220 C 
ATOM     12  O   UNL     1     105.477 115.866 108.960  1.00  0.00    -0.282 OA
BRANCH  11  13
ATOM     13  S   UNL     1     103.579 117.646 109.156  1.00  0.00    -0.100 SA
ATOM     14  H   UNL     1     104.373 118.146 108.199  1.00  0.00     0.111 HD
ENDBRANCH  11  13
ENDBRANCH   6  11
TORSDOF 4
ENDMDL
MODEL 2
REMARK VINA RESULT:    -5.305      1.753      2.300
REMARK INTER + INTRA:          -6.799
REMARK INTER:                  -6.605
REMARK INTRA:                  -0.194
REMARK UNBOUND:                -0.408
REMARK SMILES CC(=O)Oc1ccccc1C(=O)S
REMARK SMILES IDX 5 1 6 2 7 3 8 4 9 5 10 6 4 7 2 8 1 9 3 10 11 11 12 12 13 13
REMARK H PARENT 13 14
ROOT
ATOM      1  C   UNL     1     104.335 115.192 109.493  1.00  0.00     0.142 A 
ATOM      2  C   UNL     1     103.095 114.580 109.700  1.00  0.00     0.048 A 
ATOM      3  C   UNL     1     102.152 115.194 110.522  1.00  0.00     0.004 A 
ATOM      4  C   UNL     1     102.439 116.422 111.120  1.00  0.00     0.001 A 
ATOM      5  C   UNL     1     103.672 117.044 110.897  1.00  0.00     0.016 A 
ATOM      6  C   UNL     1     104.633 116.429 110.081  1.00  0.00     0.071 A 
ENDROOT
BRANCH   1   7
ATOM      7  O   UNL     1     105.224 114.524 108.642  1.00  0.00    -0.426 OA
BRANCH   7   8
ATOM      8  C   UNL     1     104.963 114.730 107.291  1.00  0.00     0.308 C 
ATOM      9  C   UNL     1     104.412 113.468 106.701  1.00  0.00     0.139 C 
ATOM     10  O   UNL     1     105.151 115.768 106.667  1.00  0.00    -0.252 OA
ENDBRANCH   7   8
ENDBRANCH   1   7
BRANCH   6  11
ATOM     11  C   UNL     1     105.927 117.096 109.800  1.00  0.00     0.220 C 
ATOM     12  O   UNL     1     106.991 116.584 110.122  1.00  0.00    -0.282 OA
BRANCH  11  13
ATOM     13  S   UNL     1     105.874 118.673 109.027  1.00  0.00    -0.100 SA
ATOM     14  H   UNL     1     104.550 118.697 108.826  1.00  0.00     0.111 HD
ENDBRANCH  11  13
ENDBRANCH   6  11
TORSDOF 4
ENDMDL
MODEL 3
REMARK VINA RESULT:    -5.305      9.381     10.805
REMARK INTER + INTRA:          -6.799
REMARK INTER:                  -6.459
REMARK INTRA:                  -0.340
REMARK UNBOUND:                -0.408
REMARK SMILES CC(=O)Oc1ccccc1C(=O)S
REMARK SMILES IDX 5 1 6 2 7 3 8 4 9 5 10 6 4 7 2 8 1 9 3 10 11 11 12 12 13 13
REMARK H PARENT 13 14
ROOT
ATOM      1  C   UNL     1      95.614 114.754 115.396  1.00  0.00     0.142 A 
ATOM      2  C   UNL     1      95.131 113.488 115.050  1.00  0.00     0.048 A 
ATOM      3  C   UNL     1      93.848 113.111 115.440  1.00  0.00     0.004 A 
ATOM      4  C   UNL     1      93.044 113.999 116.157  1.00  0.00     0.001 A 
ATOM      5  C   UNL     1      93.520 115.271 116.486  1.00  0.00     0.016 A 
ATOM      6  C   UNL     1      94.815 115.658 116.109  1.00  0.00     0.071 A 
ENDROOT
BRANCH   1   7
ATOM      7  O   UNL     1      96.905 115.069 114.955  1.00  0.00    -0.426 OA
BRANCH   7   8
ATOM      8  C   UNL     1      97.870 114.151 115.354  1.00  0.00     0.308 C 
ATOM      9  C   UNL     1      98.133 114.322 116.820  1.00  0.00     0.139 C 
ATOM     10  O   UNL     1      98.430 113.331 114.637  1.00  0.00    -0.252 OA
ENDBRANCH   7   8
ENDBRANCH   1   7
BRANCH   6  11
ATOM     11  C   UNL     1      95.317 117.019 116.413  1.00  0.00     0.220 C 
ATOM     12  O   UNL     1      96.120 117.216 117.316  1.00  0.00    -0.282 OA
BRANCH  11  13
ATOM     13  S   UNL     1      94.684 118.349 115.456  1.00  0.00    -0.100 SA
ATOM     14  H   UNL     1      94.739 119.271 116.426  1.00  0.00     0.111 HD
ENDBRANCH  11  13
ENDBRANCH   6  11
TORSDOF 4
ENDMDL
MODEL 4
REMARK VINA RESULT:    -5.228      2.202      3.946
REMARK INTER + INTRA:          -6.707
REMARK INTER:                  -6.361
REMARK INTRA:                  -0.346
REMARK UNBOUND:                -0.408
REMARK SMILES CC(=O)Oc1ccccc1C(=O)S
REMARK SMILES IDX 5 1 6 2 7 3 8 4 9 5 10 6 4 7 2 8 1 9 3 10 11 11 12 12 13 13
REMARK H PARENT 13 14
ROOT
ATOM      1  C   UNL     1     103.849 116.376 109.408  1.00  0.00     0.142 A 
ATOM      2  C   UNL     1     103.121 117.024 110.410  1.00  0.00     0.048 A 
ATOM      3  C   UNL     1     102.224 116.297 111.189  1.00  0.00     0.004 A 
ATOM      4  C   UNL     1     102.066 114.926 110.980  1.00  0.00     0.001 A 
ATOM      5  C   UNL     1     102.809 114.274 109.990  1.00  0.00     0.016 A 
ATOM      6  C   UNL     1     103.707 114.998 109.193  1.00  0.00     0.071 A 
ENDROOT
BRANCH   1   7
ATOM      7  O   UNL     1     104.744 117.167 108.678  1.00  0.00    -0.426 OA
BRANCH   7   8
ATOM      8  C   UNL     1     105.863 117.559 109.406  1.00  0.00     0.308 C 
ATOM      9  C   UNL     1     106.003 119.049 109.326  1.00  0.00     0.139 C 
ATOM     10  O   UNL     1     106.625 116.819 110.016  1.00  0.00    -0.252 OA
ENDBRANCH   7   8
ENDBRANCH   1   7
BRANCH   6  11
ATOM     11  C   UNL     1     104.532 114.314 108.169  1.00  0.00     0.220 C 
ATOM     12  O   UNL     1     105.744 114.198 108.299  1.00  0.00    -0.282 OA
BRANCH  11  13
ATOM     13  S   UNL     1     103.712 113.713 106.737  1.00  0.00    -0.100 SA
ATOM     14  H   UNL     1     104.676 112.863 106.357  1.00  0.00     0.111 HD
ENDBRANCH  11  13
ENDBRANCH   6  11
TORSDOF 4
ENDMDL
MODEL 5
REMARK VINA RESULT:    -5.187      2.237      4.048
REMARK INTER + INTRA:          -6.657
REMARK INTER:                  -6.396
REMARK INTRA:                  -0.260
REMARK UNBOUND:                -0.408
REMARK SMILES CC(=O)Oc1ccccc1C(=O)S
REMARK SMILES IDX 5 1 6 2 7 3 8 4 9 5 10 6 4 7 2 8 1 9 3 10 11 11 12 12 13 13
REMARK H PARENT 13 14
ROOT
ATOM      1  C   UNL     1     103.574 114.825 108.752  1.00  0.00     0.142 A 
ATOM      2  C   UNL     1     103.084 115.927 109.458  1.00  0.00     0.048 A 
ATOM      3  C   UNL     1     103.301 117.213 108.965  1.00  0.00     0.004 A 
ATOM      4  C   UNL     1     103.989 117.395 107.765  1.00  0.00     0.001 A 
ATOM      5  C   UNL     1     104.462 116.292 107.049  1.00  0.00     0.016 A 
ATOM      6  C   UNL     1     104.260 114.994 107.541  1.00  0.00     0.071 A 
ENDROOT
BRANCH   1   7
ATOM      7  O   UNL     1     103.303 113.565 109.299  1.00  0.00    -0.426 OA
BRANCH   7   8
ATOM      8  C   UNL     1     101.948 113.326 109.502  1.00  0.00     0.308 C 
ATOM      9  C   UNL     1     101.706 113.088 110.961  1.00  0.00     0.139 C 
ATOM     10  O   UNL     1     101.079 113.305 108.639  1.00  0.00    -0.252 OA
ENDBRANCH   7   8
ENDBRANCH   1   7
BRANCH   6  11
ATOM     11  C   UNL     1     104.717 113.812 106.772  1.00  0.00     0.220 C 
ATOM     12  O   UNL     1     105.902 113.513 106.706  1.00  0.00    -0.282 OA
BRANCH  11  13
ATOM     13  S   UNL     1     103.497 112.879 105.919  1.00  0.00    -0.100 SA
ATOM     14  H   UNL     1     102.712 113.917 105.598  1.00  0.00     0.111 HD
ENDBRANCH  11  13
ENDBRANCH   6  11
TORSDOF 4
ENDMDL
