MODEL 1
REMARK VINA RESULT:    -5.859      0.000      0.000
REMARK INTER + INTRA:          -7.715
REMARK INTER:                  -7.058
REMARK INTRA:                  -0.656
REMARK UNBOUND:                -0.656
REMARK SMILES CC(=O)Oc1ccccc1C(=O)O
REMARK SMILES IDX 5 1 6 2 7 3 8 4 9 5 10 6 4 7 2 8 1 9 3 10 11 11 12 12 13 13
REMARK H PARENT 13 14
ROOT
ATOM      1  C   UNL     1     103.896 118.693 110.289  1.00  0.00     0.145 A 
ATOM      2  C   UNL     1     102.784 117.847 110.214  1.00  0.00     0.048 A 
ATOM      3  C   UNL     1     101.961 117.691 111.327  1.00  0.00     0.004 A 
ATOM      4  C   UNL     1     102.238 118.387 112.503  1.00  0.00     0.001 A 
ATOM      5  C   UNL     1     103.339 119.247 112.569  1.00  0.00     0.019 A 
ATOM      6  C   UNL     1     104.180 119.417 111.456  1.00  0.00     0.102 A 
ENDROOT
BRANCH   1   7
ATOM      7  O   UNL     1     104.664 118.827 109.129  1.00  0.00    -0.426 OA
BRANCH   7   8
ATOM      8  C   UNL     1     105.347 117.661 108.804  1.00  0.00     0.308 C 
ATOM      9  C   UNL     1     104.891 117.192 107.454  1.00  0.00     0.139 C 
ATOM     10  O   UNL     1     106.173 117.080 109.495  1.00  0.00    -0.252 OA
ENDBRANCH   7   8
ENDBRANCH   1   7
BRANCH   6  11
ATOM     11  C   UNL     1     105.334 120.352 111.509  1.00  0.00     0.339 C 
ATOM     12  O   UNL     1     105.308 121.535 111.793  1.00  0.00    -0.246 OA
BRANCH  11  13
ATOM     13  O   UNL     1     106.500 119.752 111.200  1.00  0.00    -0.478 OA
ATOM     14  H   UNL     1     106.724 120.120 110.321  1.00  0.00     0.297 HD
ENDBRANCH  11  13
ENDBRANCH   6  11
TORSDOF 4
ENDMDL
MODEL 2
REMARK VINA RESULT:    -5.692      3.287      5.255
REMARK INTER + INTRA:          -7.513
REMARK INTER:                  -7.005
REMARK INTRA:                  -0.508
REMARK UNBOUND:                -0.656
REMARK SMILES CC(=O)Oc1ccccc1C(=O)O
REMARK SMILES IDX 5 1 6 2 7 3 8 4 9 5 10 6 4 7 2 8 1 9 3 10 11 11 12 12 13 13
REMARK H PARENT 13 14
ROOT
ATOM      1  C   UNL     1     104.309 115.478 109.319  1.00  0.00     0.145 A 
ATOM      2  C   UNL     1     103.567 115.671 110.489  1.00  0.00     0.048 A 
ATOM      3  C   UNL     1     102.541 114.784 110.809  1.00  0.00     0.004 A 
ATOM      4  C   UNL     1     102.268 113.703 109.971  1.00  0.00     0.001 A 
ATOM      5  C   UNL     1     103.024 113.502 108.812  1.00  0.00     0.019 A 
ATOM      6  C   UNL     1     104.062 114.385 108.475  1.00  0.00     0.102 A 
ENDROOT
BRANCH   1   7
ATOM      7  O   UNL     1     105.342 116.387 109.071  1.00  0.00    -0.426 OA
BRANCH   7   8
ATOM      8  C   UNL     1     106.362 116.303 110.012  1.00  0.00     0.308 C 
ATOM      9  C   UNL     1     106.585 117.662 110.606  1.00  0.00     0.139 C 
ATOM     10  O   UNL     1     107.004 115.304 110.309  1.00  0.00    -0.252 OA
ENDBRANCH   7   8
ENDBRANCH   1   7
BRANCH   6  11
ATOM     11  C   UNL     1     104.889 114.160 107.260  1.00  0.00     0.339 C 
ATOM     12  O   UNL     1     105.304 113.096 106.841  1.00  0.00    -0.246 OA
BRANCH  11  13
ATOM     13  O   UNL     1     105.165 115.304 106.604  1.00  0.00    -0.478 OA
ATOM     14  H   UNL     1     105.214 115.027 105.665  1.00  0.00     0.297 HD
ENDBRANCH  11  13
ENDBRANCH   6  11
TORSDOF 4
ENDMDL
MODEL 3
REMARK VINA RESULT:    -5.589      1.692      3.484
REMARK INTER + INTRA:          -7.389
REMARK INTER:                  -6.778
REMARK INTRA:                  -0.612
REMARK UNBOUND:                -0.656
REMARK SMILES CC(=O)Oc1ccccc1C(=O)O
REMARK SMILES IDX 5 1 6 2 7 3 8 4 9 5 10 6 4 7 2 8 1 9 3 10 11 11 12 12 13 13
REMARK H PARENT 13 14
ROOT
ATOM      1  C   UNL     1     103.705 118.975 110.842  1.00  0.00     0.145 A 
ATOM      2  C   UNL     1     102.477 118.411 111.205  1.00  0.00     0.048 A 
ATOM      3  C   UNL     1     102.319 117.027 111.179  1.00  0.00     0.004 A 
ATOM      4  C   UNL     1     103.387 116.211 110.805  1.00  0.00     0.001 A 
ATOM      5  C   UNL     1     104.619 116.777 110.462  1.00  0.00     0.019 A 
ATOM      6  C   UNL     1     104.796 118.170 110.483  1.00  0.00     0.102 A 
ENDROOT
BRANCH   1   7
ATOM      7  O   UNL     1     103.805 120.368 110.917  1.00  0.00    -0.426 OA
BRANCH   7   8
ATOM      8  C   UNL     1     103.786 120.833 112.227  1.00  0.00     0.308 C 
ATOM      9  C   UNL     1     103.002 122.111 112.275  1.00  0.00     0.139 C 
ATOM     10  O   UNL     1     104.328 120.318 113.195  1.00  0.00    -0.252 OA
ENDBRANCH   7   8
ENDBRANCH   1   7
BRANCH   6  11
ATOM     11  C   UNL     1     106.111 118.776 110.148  1.00  0.00     0.339 C 
ATOM     12  O   UNL     1     106.698 118.716 109.084  1.00  0.00    -0.246 OA
BRANCH  11  13
ATOM     13  O   UNL     1     106.647 119.450 111.184  1.00  0.00    -0.478 OA
ATOM     14  H   UNL     1     106.992 120.271 110.773  1.00  0.00     0.297 HD
ENDBRANCH  11  13
ENDBRANCH   6  11
TORSDOF 4
ENDMDL
MODEL 4
REMARK VINA RESULT:    -5.588      1.642      3.584
REMARK INTER + INTRA:          -7.388
REMARK INTER:                  -6.720
REMARK INTRA:                  -0.667
REMARK UNBOUND:                -0.656
REMARK SMILES CC(=O)Oc1ccccc1C(=O)O
REMARK SMILES IDX 5 1 6 2 7 3 8 4 9 5 10 6 4 7 2 8 1 9 3 10 11 11 12 12 13 13
REMARK H PARENT 13 14
ROOT
ATOM      1  C   UNL     1     104.298 117.856 111.148  1.00  0.00     0.145 A 
ATOM      2  C   UNL     1     102.969 117.982 111.566  1.00  0.00     0.048 A 
ATOM      3  C   UNL     1     102.055 116.972 111.272  1.00  0.00     0.004 A 
ATOM      4  C   UNL     1     102.470 115.838 110.575  1.00  0.00     0.001 A 
ATOM      5  C   UNL     1     103.803 115.706 110.175  1.00  0.00     0.019 A 
ATOM      6  C   UNL     1     104.739 116.713 110.464  1.00  0.00     0.102 A 
ENDROOT
BRANCH   1   7
ATOM      7  O   UNL     1     105.170 118.890 111.500  1.00  0.00    -0.426 OA
BRANCH   7   8
ATOM      8  C   UNL     1     104.945 120.050 110.768  1.00  0.00     0.308 C 
ATOM      9  C   UNL     1     104.787 121.199 111.720  1.00  0.00     0.139 C 
ATOM     10  O   UNL     1     104.862 120.143 109.551  1.00  0.00    -0.252 OA
ENDBRANCH   7   8
ENDBRANCH   1   7
BRANCH   6  11
ATOM     11  C   UNL     1     106.164 116.566 110.068  1.00  0.00     0.339 C 
ATOM     12  O   UNL     1     106.897 115.622 110.299  1.00  0.00    -0.246 OA
BRANCH  11  13
ATOM     13  O   UNL     1     106.621 117.630 109.379  1.00  0.00    -0.478 OA
ATOM     14  H   UNL     1     107.512 117.785 109.757  1.00  0.00     0.297 HD
ENDBRANCH  11  13
ENDBRANCH   6  11
TORSDOF 4
ENDMDL
MODEL 5
REMARK VINA RESULT:    -5.496      4.547      6.249
REMARK INTER + INTRA:          -7.277
REMARK INTER:                  -6.556
REMARK INTRA:                  -0.721
REMARK UNBOUND:                -0.656
REMARK SMILES CC(=O)Oc1ccccc1C(=O)O
REMARK SMILES IDX 5 1 6 2 7 3 8 4 9 5 10 6 4 7 2 8 1 9 3 10 11 11 12 12 13 13
REMARK H PARENT 13 14
ROOT
ATOM      1  C   UNL     1     103.382 114.878 108.490  1.00  0.00     0.145 A 
ATOM      2  C   UNL     1     102.830 115.954 109.194  1.00  0.00     0.048 A 
ATOM      3  C   UNL     1     103.209 117.255 108.871  1.00  0.00     0.004 A 
ATOM      4  C   UNL     1     104.123 117.481 107.842  1.00  0.00     0.001 A 
ATOM      5  C   UNL     1     104.658 116.404 107.128  1.00  0.00     0.019 A 
ATOM      6  C   UNL     1     104.287 115.086 107.439  1.00  0.00     0.102 A 
ENDROOT
BRANCH   1   7
ATOM      7  O   UNL     1     102.939 113.600 108.844  1.00  0.00    -0.426 OA
BRANCH   7   8
ATOM      8  C   UNL     1     101.625 113.365 108.456  1.00  0.00     0.308 C 
ATOM      9  C   UNL     1     100.827 112.966 109.662  1.00  0.00     0.139 C 
ATOM     10  O   UNL     1     101.172 113.442 107.321  1.00  0.00    -0.252 OA
ENDBRANCH   7   8
ENDBRANCH   1   7
BRANCH   6  11
ATOM     11  C   UNL     1     104.829 113.939 106.664  1.00  0.00     0.339 C 
ATOM     12  O   UNL     1     105.985 113.560 106.624  1.00  0.00    -0.246 OA
BRANCH  11  13
ATOM     13  O   UNL     1     103.878 113.297 105.958  1.00  0.00    -0.478 OA
ATOM     14  H   UNL     1     103.861 113.777 105.103  1.00  0.00     0.297 HD
ENDBRANCH  11  13
ENDBRANCH   6  11
TORSDOF 4
ENDMDL
