MODEL 1
REMARK VINA RESULT:    -6.994      0.000      0.000
REMARK INTER + INTRA:          -9.389
REMARK INTER:                  -8.833
REMARK INTRA:                  -0.556
REMARK UNBOUND:                -0.556
REMARK SMILES CC(C)Cc1ccc([C@H](C)C(=O)O)cc1
REMARK SMILES IDX 5 1 6 2 7 3 8 4 14 5 15 6 4 7 2 8 1 9 3 10 9 11 10 12 11 13
REMARK SMILES IDX 12 14 13 15
REMARK H PARENT 13 16
ROOT
ATOM      1  C   UNL     1     103.863 117.250 110.055  1.00  0.00    -0.048 A 
ATOM      2  C   UNL     1     103.857 115.890 110.388  1.00  0.00     0.004 A 
ATOM      3  C   UNL     1     103.634 114.919 109.407  1.00  0.00     0.005 A 
ATOM      4  C   UNL     1     103.410 115.286 108.073  1.00  0.00    -0.034 A 
ATOM      5  C   UNL     1     103.426 116.648 107.741  1.00  0.00     0.005 A 
ATOM      6  C   UNL     1     103.649 117.619 108.721  1.00  0.00     0.004 A 
ENDROOT
BRANCH   1   7
ATOM      7  C   UNL     1     104.099 118.300 111.113  1.00  0.00     0.038 C 
BRANCH   7   8
ATOM      8  C   UNL     1     105.104 119.392 110.693  1.00  0.00    -0.013 C 
ATOM      9  C   UNL     1     105.002 120.637 111.578  1.00  0.00     0.008 C 
ATOM     10  C   UNL     1     106.528 118.834 110.750  1.00  0.00     0.008 C 
ENDBRANCH   7   8
ENDBRANCH   1   7
BRANCH   4  11
ATOM     11  C   UNL     1     103.174 114.246 106.993  1.00  0.00     0.126 C 
ATOM     12  C   UNL     1     101.855 113.491 107.183  1.00  0.00     0.025 C 
BRANCH  11  13
ATOM     13  C   UNL     1     104.361 113.312 106.844  1.00  0.00     0.310 C 
ATOM     14  O   UNL     1     105.526 113.655 106.704  1.00  0.00    -0.252 OA
BRANCH  13  15
ATOM     15  O   UNL     1     104.056 112.001 106.925  1.00  0.00    -0.481 OA
ATOM     16  H   UNL     1     103.881 111.748 105.993  1.00  0.00     0.296 HD
ENDBRANCH  13  15
ENDBRANCH  11  13
ENDBRANCH   4  11
TORSDOF 5
ENDMDL
MODEL 2
REMARK VINA RESULT:    -6.627      1.240      1.856
REMARK INTER + INTRA:          -8.926
REMARK INTER:                  -8.370
REMARK INTRA:                  -0.556
REMARK UNBOUND:                -0.556
REMARK SMILES CC(C)Cc1ccc([C@H](C)C(=O)O)cc1
REMARK SMILES IDX 5 1 6 2 7 3 8 4 14 5 15 6 4 7 2 8 1 9 3 10 9 11 10 12 11 13
REMARK SMILES IDX 12 14 13 15
REMARK H PARENT 13 16
ROOT
ATOM      1  C   UNL     1     103.506 117.105 109.972  1.00  0.00    -0.048 A 
ATOM      2  C   UNL     1     103.222 115.768 110.275  1.00  0.00     0.004 A 
ATOM      3  C   UNL     1     103.122 114.815 109.258  1.00  0.00     0.005 A 
ATOM      4  C   UNL     1     103.301 115.177 107.915  1.00  0.00    -0.034 A 
ATOM      5  C   UNL     1     103.594 116.516 107.616  1.00  0.00     0.005 A 
ATOM      6  C   UNL     1     103.694 117.469 108.634  1.00  0.00     0.004 A 
ENDROOT
BRANCH   1   7
ATOM      7  C   UNL     1     103.611 118.137 111.069  1.00  0.00     0.038 C 
BRANCH   7   8
ATOM      8  C   UNL     1     102.363 118.217 111.970  1.00  0.00    -0.013 C 
ATOM      9  C   UNL     1     102.576 119.149 113.166  1.00  0.00     0.008 C 
ATOM     10  C   UNL     1     101.163 118.697 111.150  1.00  0.00     0.008 C 
ENDBRANCH   7   8
ENDBRANCH   1   7
BRANCH   4  11
ATOM     11  C   UNL     1     103.203 114.155 106.797  1.00  0.00     0.126 C 
ATOM     12  C   UNL     1     101.864 113.413 106.795  1.00  0.00     0.025 C 
BRANCH  11  13
ATOM     13  C   UNL     1     104.390 113.210 106.796  1.00  0.00     0.310 C 
ATOM     14  O   UNL     1     105.566 113.539 106.860  1.00  0.00    -0.252 OA
BRANCH  13  15
ATOM     15  O   UNL     1     104.065 111.902 106.765  1.00  0.00    -0.481 OA
ATOM     16  H   UNL     1     103.833 111.744 105.825  1.00  0.00     0.296 HD
ENDBRANCH  13  15
ENDBRANCH  11  13
ENDBRANCH   4  11
TORSDOF 5
ENDMDL
MODEL 3
REMARK VINA RESULT:    -6.503      3.218      6.164
REMARK INTER + INTRA:          -8.769
REMARK INTER:                  -8.245
REMARK INTRA:                  -0.525
REMARK UNBOUND:                -0.556
REMARK SMILES CC(C)Cc1ccc([C@H](C)C(=O)O)cc1
REMARK SMILES IDX 5 1 6 2 7 3 8 4 14 5 15 6 4 7 2 8 1 9 3 10 9 11 10 12 11 13
REMARK SMILES IDX 12 14 13 15
REMARK H PARENT 13 16
ROOT
ATOM      1  C   UNL     1     103.364 115.441 108.582  1.00  0.00    -0.048 A 
ATOM      2  C   UNL     1     104.346 115.317 109.572  1.00  0.00     0.004 A 
ATOM      3  C   UNL     1     105.167 116.400 109.899  1.00  0.00     0.005 A 
ATOM      4  C   UNL     1     105.025 117.631 109.243  1.00  0.00    -0.034 A 
ATOM      5  C   UNL     1     104.035 117.754 108.258  1.00  0.00     0.005 A 
ATOM      6  C   UNL     1     103.214 116.671 107.931  1.00  0.00     0.004 A 
ENDROOT
BRANCH   1   7
ATOM      7  C   UNL     1     102.479 114.272 108.225  1.00  0.00     0.038 C 
BRANCH   7   8
ATOM      8  C   UNL     1     102.388 114.001 106.710  1.00  0.00    -0.013 C 
ATOM      9  C   UNL     1     103.451 113.004 106.240  1.00  0.00     0.008 C 
ATOM     10  C   UNL     1     100.994 113.470 106.362  1.00  0.00     0.008 C 
ENDBRANCH   7   8
ENDBRANCH   1   7
BRANCH   4  11
ATOM     11  C   UNL     1     105.902 118.820 109.589  1.00  0.00     0.126 C 
ATOM     12  C   UNL     1     107.334 118.411 109.946  1.00  0.00     0.025 C 
BRANCH  11  13
ATOM     13  C   UNL     1     105.267 119.694 110.656  1.00  0.00     0.310 C 
ATOM     14  O   UNL     1     104.499 120.623 110.453  1.00  0.00    -0.252 OA
BRANCH  13  15
ATOM     15  O   UNL     1     105.573 119.345 111.921  1.00  0.00    -0.481 OA
ATOM     16  H   UNL     1     106.459 118.933 111.839  1.00  0.00     0.296 HD
ENDBRANCH  13  15
ENDBRANCH  11  13
ENDBRANCH   4  11
TORSDOF 5
ENDMDL
MODEL 4
REMARK VINA RESULT:    -6.379      3.825      6.445
REMARK INTER + INTRA:          -8.613
REMARK INTER:                  -8.118
REMARK INTRA:                  -0.494
REMARK UNBOUND:                -0.556
REMARK SMILES CC(C)Cc1ccc([C@H](C)C(=O)O)cc1
REMARK SMILES IDX 5 1 6 2 7 3 8 4 14 5 15 6 4 7 2 8 1 9 3 10 9 11 10 12 11 13
REMARK SMILES IDX 12 14 13 15
REMARK H PARENT 13 16
ROOT
ATOM      1  C   UNL     1     104.230 116.981 108.670  1.00  0.00    -0.048 A 
ATOM      2  C   UNL     1     103.002 117.307 109.255  1.00  0.00     0.004 A 
ATOM      3  C   UNL     1     102.951 118.098 110.407  1.00  0.00     0.005 A 
ATOM      4  C   UNL     1     104.128 118.577 111.000  1.00  0.00    -0.034 A 
ATOM      5  C   UNL     1     105.356 118.256 110.405  1.00  0.00     0.005 A 
ATOM      6  C   UNL     1     105.407 117.465 109.254  1.00  0.00     0.004 A 
ENDROOT
BRANCH   1   7
ATOM      7  C   UNL     1     104.287 116.124 107.428  1.00  0.00     0.038 C 
BRANCH   7   8
ATOM      8  C   UNL     1     104.008 114.630 107.689  1.00  0.00    -0.013 C 
ATOM      9  C   UNL     1     102.620 114.211 107.196  1.00  0.00     0.008 C 
ATOM     10  C   UNL     1     105.078 113.776 107.005  1.00  0.00     0.008 C 
ENDBRANCH   7   8
ENDBRANCH   1   7
BRANCH   4  11
ATOM     11  C   UNL     1     104.092 119.443 112.246  1.00  0.00     0.126 C 
ATOM     12  C   UNL     1     102.764 119.334 112.999  1.00  0.00     0.025 C 
BRANCH  11  13
ATOM     13  C   UNL     1     104.470 120.881 111.941  1.00  0.00     0.310 C 
ATOM     14  O   UNL     1     105.592 121.359 112.027  1.00  0.00    -0.252 OA
BRANCH  13  15
ATOM     15  O   UNL     1     103.452 121.646 111.498  1.00  0.00    -0.481 OA
ATOM     16  H   UNL     1     103.766 121.965 110.625  1.00  0.00     0.296 HD
ENDBRANCH  13  15
ENDBRANCH  11  13
ENDBRANCH   4  11
TORSDOF 5
ENDMDL
MODEL 5
REMARK VINA RESULT:    -6.066      2.867      4.154
REMARK INTER + INTRA:          -8.217
REMARK INTER:                  -7.692
REMARK INTRA:                  -0.525
REMARK UNBOUND:                -0.556
REMARK SMILES CC(C)Cc1ccc([C@H](C)C(=O)O)cc1
REMARK SMILES IDX 5 1 6 2 7 3 8 4 14 5 15 6 4 7 2 8 1 9 3 10 9 11 10 12 11 13
REMARK SMILES IDX 12 14 13 15
REMARK H PARENT 13 16
ROOT
ATOM      1  C   UNL     1     102.206 118.496 111.479  1.00  0.00    -0.048 A 
ATOM      2  C   UNL     1     101.789 117.160 111.463  1.00  0.00     0.004 A 
ATOM      3  C   UNL     1     102.660 116.148 111.051  1.00  0.00     0.005 A 
ATOM      4  C   UNL     1     103.967 116.449 110.642  1.00  0.00    -0.034 A 
ATOM      5  C   UNL     1     104.385 117.787 110.668  1.00  0.00     0.005 A 
ATOM      6  C   UNL     1     103.514 118.799 111.081  1.00  0.00     0.004 A 
ENDROOT
BRANCH   1   7
ATOM      7  C   UNL     1     101.266 119.591 111.921  1.00  0.00     0.038 C 
BRANCH   7   8
ATOM      8  C   UNL     1      99.782 119.291 111.631  1.00  0.00    -0.013 C 
ATOM      9  C   UNL     1      98.956 119.184 112.916  1.00  0.00     0.008 C 
ATOM     10  C   UNL     1      99.198 120.384 110.732  1.00  0.00     0.008 C 
ENDBRANCH   7   8
ENDBRANCH   1   7
BRANCH   4  11
ATOM     11  C   UNL     1     104.930 115.363 110.198  1.00  0.00     0.126 C 
ATOM     12  C   UNL     1     106.395 115.765 110.384  1.00  0.00     0.025 C 
BRANCH  11  13
ATOM     13  C   UNL     1     104.632 114.892 108.786  1.00  0.00     0.310 C 
ATOM     14  O   UNL     1     104.009 113.884 108.486  1.00  0.00    -0.252 OA
BRANCH  13  15
ATOM     15  O   UNL     1     105.076 115.716 107.816  1.00  0.00    -0.481 OA
ATOM     16  H   UNL     1     105.357 116.518 108.305  1.00  0.00     0.296 HD
ENDBRANCH  13  15
ENDBRANCH  11  13
ENDBRANCH   4  11
TORSDOF 5
ENDMDL
