MODEL 1
REMARK VINA RESULT:    -5.841      0.000      0.000
REMARK INTER + INTRA:          -5.841
REMARK INTER:                  -5.841
REMARK INTRA:                   0.000
REMARK UNBOUND:                 0.000
REMARK SMILES Cn1c(=O)c2c(ncn2C)n(C)c1=O
REMARK SMILES IDX 1 1 2 2 3 3 4 4 5 5 6 6 7 7 8 8 9 9 10 10 11 11 12 12 13 13
REMARK SMILES IDX 14 14
REMARK H PARENT
ROOT
ATOM      1  C   UNL     1     103.055 116.124 109.626  1.00  0.00     0.159 C 
ATOM      2  N   UNL     1     103.712 117.325 110.103  1.00  0.00    -0.261 N 
ATOM      3  C   UNL     1     102.920 118.322 110.680  1.00  0.00     0.282 A 
ATOM      4  O   UNL     1     101.701 118.255 110.813  1.00  0.00    -0.267 OA
ATOM      5  C   UNL     1     103.677 119.446 111.108  1.00  0.00     0.152 A 
ATOM      6  C   UNL     1     105.029 119.534 110.968  1.00  0.00     0.167 A 
ATOM      7  N   UNL     1     105.518 120.708 111.455  1.00  0.00    -0.218 NA
ATOM      8  C   UNL     1     104.453 121.347 111.900  1.00  0.00     0.202 A 
ATOM      9  N   UNL     1     103.310 120.617 111.709  1.00  0.00    -0.328 N 
ATOM     10  C   UNL     1     101.974 121.015 112.077  1.00  0.00     0.151 C 
ATOM     11  N   UNL     1     105.764 118.526 110.393  1.00  0.00    -0.279 N 
ATOM     12  C   UNL     1     107.203 118.658 110.262  1.00  0.00     0.157 C 
ATOM     13  C   UNL     1     105.112 117.378 109.940  1.00  0.00     0.332 A 
ATOM     14  O   UNL     1     105.724 116.442 109.416  1.00  0.00    -0.247 OA
ENDROOT
TORSDOF 0
ENDMDL
MODEL 2
REMARK VINA RESULT:    -5.793      1.550      3.690
REMARK INTER + INTRA:          -5.793
REMARK INTER:                  -5.793
REMARK INTRA:                   0.000
REMARK UNBOUND:                 0.000
REMARK SMILES Cn1c(=O)c2c(ncn2C)n(C)c1=O
REMARK SMILES IDX 1 1 2 2 3 3 4 4 5 5 6 6 7 7 8 8 9 9 10 10 11 11 12 12 13 13
REMARK SMILES IDX 14 14
REMARK H PARENT
ROOT
ATOM      1  C   UNL     1     101.061 118.567 111.933  1.00  0.00     0.159 C 
ATOM      2  N   UNL     1     102.461 118.824 111.660  1.00  0.00    -0.261 N 
ATOM      3  C   UNL     1     103.226 117.789 111.114  1.00  0.00     0.282 A 
ATOM      4  O   UNL     1     102.796 116.671 110.849  1.00  0.00    -0.267 OA
ATOM      5  C   UNL     1     104.579 118.164 110.893  1.00  0.00     0.152 A 
ATOM      6  C   UNL     1     105.069 119.402 111.183  1.00  0.00     0.167 A 
ATOM      7  N   UNL     1     106.392 119.510 110.879  1.00  0.00    -0.218 NA
ATOM      8  C   UNL     1     106.717 118.326 110.397  1.00  0.00     0.202 A 
ATOM      9  N   UNL     1     105.644 117.474 110.387  1.00  0.00    -0.328 N 
ATOM     10  C   UNL     1     105.646 116.108 109.926  1.00  0.00     0.151 C 
ATOM     11  N   UNL     1     104.276 120.387 111.719  1.00  0.00    -0.279 N 
ATOM     12  C   UNL     1     104.837 121.692 112.014  1.00  0.00     0.157 C 
ATOM     13  C   UNL     1     102.931 120.117 111.974  1.00  0.00     0.332 A 
ATOM     14  O   UNL     1     102.174 120.966 112.455  1.00  0.00    -0.247 OA
ENDROOT
TORSDOF 0
ENDMDL
MODEL 3
REMARK VINA RESULT:    -5.729      3.114      5.579
REMARK INTER + INTRA:          -5.729
REMARK INTER:                  -5.729
REMARK INTRA:                   0.000
REMARK UNBOUND:                 0.000
REMARK SMILES Cn1c(=O)c2c(ncn2C)n(C)c1=O
REMARK SMILES IDX 1 1 2 2 3 3 4 4 5 5 6 6 7 7 8 8 9 9 10 10 11 11 12 12 13 13
REMARK SMILES IDX 14 14
REMARK H PARENT
ROOT
ATOM      1  C   UNL     1     104.110 117.962 109.327  1.00  0.00     0.159 C 
ATOM      2  N   UNL     1     103.766 116.569 109.122  1.00  0.00    -0.261 N 
ATOM      3  C   UNL     1     102.887 115.968 110.029  1.00  0.00     0.282 A 
ATOM      4  O   UNL     1     102.383 116.538 110.993  1.00  0.00    -0.267 OA
ATOM      5  C   UNL     1     102.628 114.605 109.722  1.00  0.00     0.152 A 
ATOM      6  C   UNL     1     103.181 113.961 108.655  1.00  0.00     0.167 A 
ATOM      7  N   UNL     1     102.776 112.663 108.578  1.00  0.00    -0.218 NA
ATOM      8  C   UNL     1     101.966 112.510 109.608  1.00  0.00     0.202 A 
ATOM      9  N   UNL     1     101.847 113.666 110.333  1.00  0.00    -0.328 N 
ATOM     10  C   UNL     1     101.045 113.850 111.516  1.00  0.00     0.151 C 
ATOM     11  N   UNL     1     104.039 114.596 107.792  1.00  0.00    -0.279 N 
ATOM     12  C   UNL     1     104.606 113.874 106.668  1.00  0.00     0.157 C 
ATOM     13  C   UNL     1     104.357 115.938 108.009  1.00  0.00     0.332 A 
ATOM     14  O   UNL     1     105.123 116.556 107.263  1.00  0.00    -0.247 OA
ENDROOT
TORSDOF 0
ENDMDL
MODEL 4
REMARK VINA RESULT:    -5.723      2.624      4.242
REMARK INTER + INTRA:          -5.723
REMARK INTER:                  -5.723
REMARK INTRA:                   0.000
REMARK UNBOUND:                 0.000
REMARK SMILES Cn1c(=O)c2c(ncn2C)n(C)c1=O
REMARK SMILES IDX 1 1 2 2 3 3 4 4 5 5 6 6 7 7 8 8 9 9 10 10 11 11 12 12 13 13
REMARK SMILES IDX 14 14
REMARK H PARENT
ROOT
ATOM      1  C   UNL     1     104.711 114.284 106.679  1.00  0.00     0.159 C 
ATOM      2  N   UNL     1     104.283 114.996 107.868  1.00  0.00    -0.261 N 
ATOM      3  C   UNL     1     104.675 116.330 108.013  1.00  0.00     0.282 A 
ATOM      4  O   UNL     1     105.359 116.947 107.201  1.00  0.00    -0.267 OA
ATOM      5  C   UNL     1     104.195 116.916 109.215  1.00  0.00     0.152 A 
ATOM      6  C   UNL     1     103.435 116.243 110.123  1.00  0.00     0.167 A 
ATOM      7  N   UNL     1     103.103 117.024 111.188  1.00  0.00    -0.218 NA
ATOM      8  C   UNL     1     103.665 118.189 110.930  1.00  0.00     0.202 A 
ATOM      9  N   UNL     1     104.341 118.169 109.739  1.00  0.00    -0.328 N 
ATOM     10  C   UNL     1     105.067 119.269 109.155  1.00  0.00     0.151 C 
ATOM     11  N   UNL     1     103.076 114.931 109.935  1.00  0.00    -0.279 N 
ATOM     12  C   UNL     1     102.265 114.249 110.928  1.00  0.00     0.157 C 
ATOM     13  C   UNL     1     103.499 114.265 108.784  1.00  0.00     0.332 A 
ATOM     14  O   UNL     1     103.204 113.086 108.566  1.00  0.00    -0.247 OA
ENDROOT
TORSDOF 0
ENDMDL
MODEL 5
REMARK VINA RESULT:    -5.574      2.818      4.425
REMARK INTER + INTRA:          -5.574
REMARK INTER:                  -5.574
REMARK INTRA:                   0.000
REMARK UNBOUND:                 0.000
REMARK SMILES Cn1c(=O)c2c(ncn2C)n(C)c1=O
REMARK SMILES IDX 1 1 2 2 3 3 4 4 5 5 6 6 7 7 8 8 9 9 10 10 11 11 12 12 13 13
REMARK SMILES IDX 14 14
REMARK H PARENT
ROOT
ATOM      1  C   UNL     1     101.894 113.271 110.423  1.00  0.00     0.159 C 
ATOM      2  N   UNL     1     102.762 114.150 109.666  1.00  0.00    -0.261 N 
ATOM      3  C   UNL     1     103.013 115.427 110.177  1.00  0.00     0.282 A 
ATOM      4  O   UNL     1     102.548 115.861 111.227  1.00  0.00    -0.267 OA
ATOM      5  C   UNL     1     103.876 116.192 109.347  1.00  0.00     0.152 A 
ATOM      6  C   UNL     1     104.399 115.722 108.180  1.00  0.00     0.167 A 
ATOM      7  N   UNL     1     105.195 116.644 107.570  1.00  0.00    -0.218 NA
ATOM      8  C   UNL     1     105.159 117.691 108.373  1.00  0.00     0.202 A 
ATOM      9  N   UNL     1     104.368 117.460 109.467  1.00  0.00    -0.328 N 
ATOM     10  C   UNL     1     104.109 118.387 110.540  1.00  0.00     0.151 C 
ATOM     11  N   UNL     1     104.123 114.458 107.719  1.00  0.00    -0.279 N 
ATOM     12  C   UNL     1     104.700 113.997 106.470  1.00  0.00     0.157 C 
ATOM     13  C   UNL     1     103.283 113.629 108.464  1.00  0.00     0.332 A 
ATOM     14  O   UNL     1     103.003 112.484 108.096  1.00  0.00    -0.247 OA
ENDROOT
TORSDOF 0
ENDMDL
